<?xml version="1.0" encoding="UTF-8"?>

<!-- generated on 2025-09-17 05:47:41 by Eclipse SUMO sumo Version 1.24.0
<sumoConfiguration xmlns:xsi="http://www.w3.org/2001/XMLSchema-instance" xsi:noNamespaceSchemaLocation="http://sumo.dlr.de/xsd/sumoConfiguration.xsd">

    <input>
        <net-file value="configs/../networks/simple_intersection.net.xml"/>
        <route-files value="configs/../routes/simple_normal_traffic.rou.xml"/>
    </input>

    <output>
        <fcd-output value="configs/../scenarios/normal_traffic_fcd.xml"/>
        <summary-output value="configs/../scenarios/normal_traffic_summary.xml"/>
        <tripinfo-output value="configs/../scenarios/normal_traffic_tripinfo.xml"/>
    </output>

    <time>
        <begin value="0"/>
        <end value="7200"/>
        <step-length value="0.1"/>
    </time>

    <processing>
        <ignore-route-errors value="true"/>
    </processing>

    <report>
        <verbose value="true"/>
        <no-step-log value="true"/>
    </report>

    <traci_server>
        <remote-port value="8813"/>
    </traci_server>

    <random_number>
        <seed value="42"/>
    </random_number>

    <gui_only>
        <quit-on-end value="true"/>
        <start value="true"/>
    </gui_only>

</sumoConfiguration>
